<?xml version="1.0"?>
<VTKFile type="UnstructuredGrid"  version="0.1"  >
<UnstructuredGrid>
<Piece  NumberOfPoints="10201" NumberOfCells="20000">
<Points>
<DataArray  type="Float64"  NumberOfComponents="3"  format="ascii">0 0 0  0.01 0 0  0.02 0 0  0.03 0 0  0.04 0 0  0.05 0 0  0.06 0 0  0.07000000000000001 0 0  0.08 0 0  0.09 0 0  0.1 0 0  0.11 0 0  0.12 0 0  0.13 0 0  0.14 0 0  0.15 0 0  0.16 0 0  0.17 0 0  0.18 0 0  0.19 0 0  0.2 0 0  0.21 0 0  0.22 0 0  0.23 0 0  0.24 0 0  0.25 0 0  0.26 0 0  0.27 0 0  0.28 0 0  0.29 0 0  0.3 0 0  0.31 0 0  0.32 0 0  0.33 0 0  0.34 0 0  0.35 0 0  0.36 0 0  0.37 0 0  0.38 0 0  0.39 0 0  0.4 0 0  0.41 0 0  0.42 0 0  0.43 0 0  0.44 0 0  0.45 0 0  0.46 0 0  0.47 0 0  0.48 0 0  0.49 0 0  0.5 0 0  0.51 0 0  0.52 0 0  0.53 0 0  0.54 0 0  0.55 0 0  0.5600000000000001 0 0  0.57 0 0  0.58 0 0  0.59 0 0  0.6 0 0  0.61 0 0  0.62 0 0  0.63 0 0  0.64 0 0  0.65 0 0  0.66 0 0  0.67 0 0  0.68 0 0  0.6899999999999999 0 0  0.7 0 0  0.71 0 0  0.72 0 0  0.73 0 0  0.74 0 0  0.75 0 0  0.76 0 0  0.77 0 0  0.78 0 0  0.79 0 0  0.8 0 0  0.8100000000000001 0 0  0.82 0 0  0.83 0 0  0.84 0 0  0.85 0 0  0.86 0 0  0.87 0 0  0.88 0 0  0.89 0 0  0.9 0 0  0.91 0 0  0.92 0 0  0.93 0 0  0.9399999999999999 0 0  0.95 0 0  0.96 0 0  0.97 0 0  0.98 0 0  0.99 0 0  1 0 0  0 0.01 0  0.01 0.01 0  0.02 0.01 0  0.03 0.01 0  0.04 0.01 0  0.05 0.01 0  0.06 0.01 0  0.07000000000000001 0.01 0  0.08 0.01 0  0.09 0.01 0  0.1 0.01 0  0.11 0.01 0  0.12 0.01 0  0.13 0.01 0  0.14 0.01 0  0.15 0.01 0  0.16 0.01 0  0.17 0.01 0  0.18 0.01 0  0.19 0.01 0  0.2 0.01 0  0.21 0.01 0  0.22 0.01 0  0.23 0.01 0  0.24 0.01 0  0.25 0.01 0  0.26 0.01 0  0.27 0.01 0  0.28 0.01 0  0.29 0.01 0  0.3 0.01 0  0.31 0.01 0  0.32 0.01 0  0.33 0.01 0  0.34 0.01 0  0.35 0.01 0  0.36 0.01 0  0.37 0.01 0  0.38 0.01 0  0.39 0.01 0  0.4 0.01 0  0.41 0.01 0  0.42 0.01 0  0.43 0.01 0  0.44 0.01 0  0.45 0.01 0  0.46 0.01 0  0.47 0.01 0  0.48 0.01 0  0.49 0.01 0  0.5 0.01 0  0.51 0.01 0  0.52 0.01 0  0.53 0.01 0  0.54 0.01 0  0.55 0.01 0  0.5600000000000001 0.01 0  0.57 0.01 0  0.58 0.01 0  0.59 0.01 0  0.6 0.01 0  0.61 0.01 0  0.62 0.01 0  0.63 0.01 0  0.64 0.01 0  0.65 0.01 0  0.66 0.01 0  0.67 0.01 0  0.68 0.01 0  0.6899999999999999 0.01 0  0.7 0.01 0  0.71 0.01 0  0.72 0.01 0  0.73 0.01 0  0.74 0.01 0  0.75 0.01 0  0.76 0.01 0  0.77 0.01 0  0.78 0.01 0  0.79 0.01 0  0.8 0.01 0  0.8100000000000001 0.01 0  0.82 0.01 0  0.83 0.01 0  0.84 0.01 0  0.85 0.01 0  0.86 0.01 0  0.87 0.01 0  0.88 0.01 0  0.89 0.01 0  0.9 0.01 0  0.91 0.01 0  0.92 0.01 0  0.93 0.01 0  0.9399999999999999 0.01 0  0.95 0.01 0  0.96 0.01 0  0.97 0.01 0  0.98 0.01 0  0.99 0.01 0  1 0.01 0  0 0.02 0  0.01 0.02 0  0.02 0.02 0  0.03 0.02 0  0.04 0.02 0  0.05 0.02 0  0.06 0.02 0  0.07000000000000001 0.02 0  0.08 0.02 0  0.09 0.02 0  0.1 0.02 0  0.11 0.02 0  0.12 0.02 0  0.13 0.02 0  0.14 0.02 0  0.15 0.02 0  0.16 0.02 0  0.17 0.02 0  0.18 0.02 0  0.19 0.02 0  0.2 0.02 0  0.21 0.02 0  0.22 0.02 0  0.23 0.02 0  0.24 0.02 0  0.25 0.02 0  0.26 0.02 0  0.27 0.02 0  0.28 0.02 0  0.29 0.02 0  0.3 0.02 0  0.31 0.02 0  0.32 0.02 0  0.33 0.02 0  0.34 0.02 0  0.35 0.02 0  0.36 0.02 0  0.37 0.02 0  0.38 0.02 0  0.39 0.02 0  0.4 0.02 0  0.41 0.02 0  0.42 0.02 0  0.43 0.02 0  0.44 0.02 0  0.45 0.02 0  0.46 0.02 0  0.47 0.02 0  0.48 0.02 0  0.49 0.02 0  0.5 0.02 0  0.51 0.02 0  0.52 0.02 0  0.53 0.02 0  0.54 0.02 0  0.55 0.02 0  0.5600000000000001 0.02 0  0.57 0.02 0  0.58 0.02 0  0.59 0.02 0  0.6 0.02 0  0.61 0.02 0  0.62 0.02 0  0.63 0.02 0  0.64 0.02 0  0.65 0.02 0  0.66 0.02 0  0.67 0.02 0  0.68 0.02 0  0.6899999999999999 0.02 0  0.7 0.02 0  0.71 0.02 0  0.72 0.02 0  0.73 0.02 0  0.74 0.02 0  0.75 0.02 0  0.76 0.02 0  0.77 0.02 0  0.78 0.02 0  0.79 0.02 0  0.8 0.02 0  0.8100000000000001 0.02 0  0.82 0.02 0  0.83 0.02 0  0.84 0.02 0  0.85 0.02 0  0.86 0.02 0  0.87 0.02 0  0.88 0.02 0  0.89 0.02 0  0.9 0.02 0  0.91 0.02 0  0.92 0.02 0  0.93 0.02 0  0.9399999999999999 0.02 0  0.95 0.02 0  0.96 0.02 0  0.97 0.02 0  0.98 0.02 0  0.99 0.02 0  1 0.02 0  0 0.03 0  0.01 0.03 0  0.02 0.03 0  0.03 0.03 0  0.04 0.03 0  0.05 0.03 0  0.06 0.03 0  0.07000000000000001 0.03 0  0.08 0.03 0  0.09 0.03 0  0.1 0.03 0  0.11 0.03 0  0.12 0.03 0  0.13 0.03 0  0.14 0.03 0  0.15 0.03 0  0.16 0.03 0  0.17 0.03 0  0.18 0.03 0  0.19 0.03 0  0.2 0.03 0  0.21 0.03 0  0.22 0.03 0  0.23 0.03 0  0.24 0.03 0  0.25 0.03 0  0.26 0.03 0  0.27 0.03 0  0.28 0.03 0  0.29 0.03 0  0.3 0.03 0  0.31 0.03 0  0.32 0.03 0  0.33 0.03 0  0.34 0.03 0  0.35 0.03 0  0.36 0.03 0  0.37 0.03 0  0.38 0.03 0  0.39 0.03 0  0.4 0.03 0  0.41 0.03 0  0.42 0.03 0  0.43 0.03 0  0.44 0.03 0  0.45 0.03 0  0.46 0.03 0  0.47 0.03 0  0.48 0.03 0  0.49 0.03 0  0.5 0.03 0  0.51 0.03 0  0.52 0.03 0  0.53 0.03 0  0.54 0.03 0  0.55 0.03 0  0.5600000000000001 0.03 0  0.57 0.03 0  0.58 0.03 0  0.59 0.03 0  0.6 0.03 0  0.61 0.03 0  0.62 0.03 0  0.63 0.03 0  0.64 0.03 0  0.65 0.03 0  0.66 0.03 0  0.67 0.03 0  0.68 0.03 0  0.6899999999999999 0.03 0  0.7 0.03 0  0.71 0.03 0  0.72 0.03 0  0.73 0.03 0  0.74 0.03 0  0.75 0.03 0  0.76 0.03 0  0.77 0.03 0  0.78 0.03 0  0.79 0.03 0  0.8 0.03 0  0.8100000000000001 0.03 0  0.82 0.03 0  0.83 0.03 0  0.84 0.03 0  0.85 0.03 0  0.86 0.03 0  0.87 0.03 0  0.88 0.03 0  0.89 0.03 0  0.9 0.03 0  0.91 0.03 0  0.92 0.03 0  0.93 0.03 0  0.9399999999999999 0.03 0  0.95 0.03 0  0.96 0.03 0  0.97 0.03 0  0.98 0.03 0  0.99 0.03 0  1 0.03 0  0 0.04 0  0.01 0.04 0  0.02 0.04 0  0.03 0.04 0  0.04 0.04 0  0.05 0.04 0  0.06 0.04 0  0.07000000000000001 0.04 0  0.08 0.04 0  0.09 0.04 0  0.1 0.04 0  0.11 0.04 0  0.12 0.04 0  0.13 0.04 0  0.14 0.04 0  0.15 0.04 0  0.16 0.04 0  0.17 0.04 0  0.18 0.04 0  0.19 0.04 0  0.2 0.04 0  0.21 0.04 0  0.22 0.04 0  0.23 0.04 0  0.24 0.04 0  0.25 0.04 0  0.26 0.04 0  0.27 0.04 0  0.28 0.04 0  0.29 0.04 0  0.3 0.04 0  0.31 0.04 0  0.32 0.04 0  0.33 0.04 0  0.34 0.04 0  0.35 0.04 0  0.36 0.04 0  0.37 0.04 0  0.38 0.04 0  0.39 0.04 0  0.4 0.04 0  0.41 0.04 0  0.42 0.04 0  0.43 0.04 0  0.44 0.04 0  0.45 0.04 0  0.46 0.04 0  0.47 0.04 0  0.48 0.04 0  0.49 0.04 0  0.5 0.04 0  0.51 0.04 0  0.52 0.04 0  0.53 0.04 0  0.54 0.04 0  0.55 0.04 0  0.5600000000000001 0.04 0  0.57 0.04 0  0.58 0.04 0  0.59 0.04 0  0.6 0.04 0  0.61 0.04 0  0.62 0.04 0  0.63 0.04 0  0.64 0.04 0  0.65 0.04 0  0.66 0.04 0  0.67 0.04 0  0.68 0.04 0  0.6899999999999999 0.04 0  0.7 0.04 0  0.71 0.04 0  0.72 0.04 0  0.73 0.04 0  0.74 0.04 0  0.75 0.04 0  0.76 0.04 0  0.77 0.04 0  0.78 0.04 0  0.79 0.04 0  0.8 0.04 0  0.8100000000000001 0.04 0  0.82 0.04 0  0.83 0.04 0  0.84 0.04 0  0.85 0.04 0  0.86 0.04 0  0.87 0.04 0  0.88 0.04 0  0.89 0.04 0  0.9 0.04 0  0.91 0.04 0  0.92 0.04 0  0.93 0.04 0  0.9399999999999999 0.04 0  0.95 0.04 0  0.96 0.04 0  0.97 0.04 0  0.98 0.04 0  0.99 0.04 0  1 0.04 0  0 0.05 0  0.01 0.05 0  0.02 0.05 0  0.03 0.05 0  0.04 0.05 0  0.05 0.05 0  0.06 0.05 0  0.07000000000000001 0.05 0  0.08 0.05 0  0.09 0.05 0  0.1 0.05 0  0.11 0.05 0  0.12 0.05 0  0.13 0.05 0  0.14 0.05 0  0.15 0.05 0  0.16 0.05 0  0.17 0.05 0  0.18 0.05 0  0.19 0.05 0  0.2 0.05 0  0.21 0.05 0  0.22 0.05 0  0.23 0.05 0  0.24 0.05 0  0.25 0.05 0  0.26 0.05 0  0.27 0.05 0  0.28 0.05 0  0.29 0.05 0  0.3 0.05 0  0.31 0.05 0  0.32 0.05 0  0.33 0.05 0  0.34 0.05 0  0.35 0.05 0  0.36 0.05 0  0.37 0.05 0  0.38 0.05 0  0.39 0.05 0  0.4 0.05 0  0.41 0.05 0  0.42 0.05 0  0.43 0.05 0  0.44 0.05 0  0.45 0.05 0  0.46 0.05 0  0.47 0.05 0  0.48 0.05 0  0.49 0.05 0  0.5 0.05 0  0.51 0.05 0  0.52 0.05 0  0.53 0.05 0  0.54 0.05 0  0.55 0.05 0  0.5600000000000001 0.05 0  0.57 0.05 0  0.58 0.05 0  0.59 0.05 0  0.6 0.05 0  0.61 0.05 0  0.62 0.05 0  0.63 0.05 0  0.64 0.05 0  0.65 0.05 0  0.66 0.05 0  0.67 0.05 0  0.68 0.05 0  0.6899999999999999 0.05 0  0.7 0.05 0  0.71 0.05 0  0.72 0.05 0  0.73 0.05 0  0.74 0.05 0  0.75 0.05 0  0.76 0.05 0  0.77 0.05 0  0.78 0.05 0  0.79 0.05 0  0.8 0.05 0  0.8100000000000001 0.05 0  0.82 0.05 0  0.83 0.05 0  0.84 0.05 0  0.85 0.05 0  0.86 0.05 0  0.87 0.05 0  0.88 0.05 0  0.89 0.05 0  0.9 0.05 0  0.91 0.05 0  0.92 0.05 0  0.93 0.05 0  0.9399999999999999 0.05 0  0.95 0.05 0  0.96 0.05 0  0.97 0.05 0  0.98 0.05 0  0.99 0.05 0  1 0.05 0  0 0.06 0  0.01 0.06 0  0.02 0.06 0  0.03 0.06 0  0.04 0.06 0  0.05 0.06 0  0.06 0.06 0  0.07000000000000001 0.06 0  0.08 0.06 0  0.09 0.06 0  0.1 0.06 0  0.11 0.06 0  0.12 0.06 0  0.13 0.06 0  0.14 0.06 0  0.15 0.06 0  0.16 0.06 0  0.17 0.06 0  0.18 0.06 0  0.19 0.06 0  0.2 0.06 0  0.21 0.06 0  0.22 0.06 0  0.23 0.06 0  0.24 0.06 0  0.25 0.06 0  0.26 0.06 0  0.27 0.06 0  0.28 0.06 0  0.29 0.06 0  0.3 0.06 0  0.31 0.06 0  0.32 0.06 0  0.33 0.06 0  0.34 0.06 0  0.35 0.06 0  0.36 0.06 0  0.37 0.06 0  0.38 0.06 0  0.39 0.06 0  0.4 0.06 0  0.41 0.06 0  0.42 0.06 0  0.43 0.06 0  0.44 0.06 0  0.45 0.06 0  0.46 0.06 0  0.47 0.06 0  0.48 0.06 0  0.49 0.06 0  0.5 0.06 0  0.51 0.06 0  0.52 0.06 0  0.53 0.06 0  0.54 0.06 0  0.55 0.06 0  0.5600000000000001 0.06 0  0.57 0.06 0  0.58 0.06 0  0.59 0.06 0  0.6 0.06 0  0.61 0.06 0  0.62 0.06 0  0.63 0.06 0  0.64 0.06 0  0.65 0.06 0  0.66 0.06 0  0.67 0.06 0  0.68 0.06 0  0.6899999999999999 0.06 0  0.7 0.06 0  0.71 0.06 0  0.72 0.06 0  0.73 0.06 0  0.74 0.06 0  0.75 0.06 0  0.76 0.06 0  0.77 0.06 0  0.78 0.06 0  0.79 0.06 0  0.8 0.06 0  0.8100000000000001 0.06 0  0.82 0.06 0  0.83 0.06 0  0.84 0.06 0  0.85 0.06 0  0.86 0.06 0  0.87 0.06 0  0.88 0.06 0  0.89 0.06 0  0.9 0.06 0  0.91 0.06 0  0.92 0.06 0  0.93 0.06 0  0.9399999999999999 0.06 0  0.95 0.06 0  0.96 0.06 0  0.97 0.06 0  0.98 0.06 0  0.99 0.06 0  1 0.06 0  0 0.07000000000000001 0  0.01 0.07000000000000001 0  0.02 0.07000000000000001 0  0.03 0.07000000000000001 0  0.04 0.07000000000000001 0  0.05 0.07000000000000001 0  0.06 0.07000000000000001 0  0.07000000000000001 0.07000000000000001 0  0.08 0.07000000000000001 0  0.09 0.07000000000000001 0  0.1 0.07000000000000001 0  0.11 0.07000000000000001 0  0.12 0.07000000000000001 0  0.13 0.07000000000000001 0  0.14 0.07000000000000001 0  0.15 0.07000000000000001 0  0.16 0.07000000000000001 0  0.17 0.0700
[...]
<PointData  Scalars="f_11"> 
<DataArray  type="Float64"  Name="f_11"  format="ascii">0.0000000000000000e+00  0.0000000000000000e+00  0.0000000000000000e+00  0.0000000000000000e+00  0.0000000000000000e+00  0.0000000000000000e+00  0.0000000000000000e+00  0.0000000000000000e+00  0.0000000000000000e+00  0.0000000000000000e+00  0.0000000000000000e+00  0.0000000000000000e+00  0.0000000000000000e+00  0.0000000000000000e+00  0.0000000000000000e+00  0.0000000000000000e+00  0.0000000000000000e+00  0.0000000000000000e+00  0.0000000000000000e+00  0.0000000000000000e+00  0.0000000000000000e+00  0.0000000000000000e+00  0.0000000000000000e+00  0.0000000000000000e+00  0.0000000000000000e+00  0.0000000000000000e+00  0.0000000000000000e+00  0.0000000000000000e+00  0.0000000000000000e+00  0.0000000000000000e+00  0.0000000000000000e+00  0.0000000000000000e+00  0.0000000000000000e+00  0.0000000000000000e+00  0.0000000000000000e+00  0.0000000000000000e+00  0.0000000000000000e+00  0.0000000000000000e+00  0.0000000000000000e+00  0.0000000000000000e+00  0.0000000000000000e+00  0.0000000000000000e+00  0.0000000000000000e+00  0.0000000000000000e+00  0.0000000000000000e+00  0.0000000000000000e+00  0.0000000000000000e+00  0.0000000000000000e+00  0.0000000000000000e+00  0.0000000000000000e+00  0.0000000000000000e+00  0.0000000000000000e+00  0.0000000000000000e+00  0.0000000000000000e+00  0.0000000000000000e+00  0.0000000000000000e+00  0.0000000000000000e+00  0.0000000000000000e+00  0.0000000000000000e+00  0.0000000000000000e+00  0.0000000000000000e+00  0.0000000000000000e+00  0.0000000000000000e+00  0.0000000000000000e+00  0.0000000000000000e+00  0.0000000000000000e+00  0.0000000000000000e+00  0.0000000000000000e+00  0.0000000000000000e+00  0.0000000000000000e+00  0.0000000000000000e+00  0.0000000000000000e+00  0.0000000000000000e+00  0.0000000000000000e+00  0.0000000000000000e+00  0.0000000000000000e+00  0.0000000000000000e+00  0.0000000000000000e+00  0.0000000000000000e+00  0.0000000000000000e+00  0.0000000000000000e+00  0.0000000000000000e+00  0.0000000000000000e+00  0.0000000000000000e+00  0.0000000000000000e+00  0.0000000000000000e+00  0.0000000000000000e+00  0.0000000000000000e+00  0.0000000000000000e+00  0.0000000000000000e+00  0.0000000000000000e+00  0.0000000000000000e+00  0.0000000000000000e+00  0.0000000000000000e+00  0.0000000000000000e+00  0.0000000000000000e+00  0.0000000000000000e+00  0.0000000000000000e+00  0.0000000000000000e+00  0.0000000000000000e+00  0.0000000000000000e+00  0.0000000000000000e+00  2.6275819042284864e-04  4.7553906700110397e-04  6.5813627764366720e-04  8.1986840139108299e-04  9.6584392490700231e-04  1.0992162062526678e-03  1.2221091503642294e-03  1.3360469208291053e-03  1.4421757424850803e-03  1.5413887913153762e-03  1.6344015962575418e-03  1.7218001788377672e-03  1.8040732088488113e-03  1.8816342952471140e-03  1.9548379237465073e-03  2.0239911533840348e-03  2.0893623944396021e-03  2.1511881243761765e-03  2.2096781134170341e-03  2.2650195511411493e-03  2.3173803482239848e-03  2.3669118092278850e-03  2.4137508189814721e-03  2.4580216479451553e-03  2.4998374556383712e-03  2.5393015522441218e-03  2.5765084646446465e-03  2.6115448428692943e-03  2.6444902352271726e-03  2.6754177545459659e-03  2.7043946534495754e-03  2.7314828231293502e-03  2.7567392273441091e-03  2.7802162812390523e-03  2.8019621828677360e-03  2.8220212039341622e-03  2.8404339451681272e-03  2.8572375608493824e-03  2.8724659562610172e-03  2.8861499612462542e-03  2.8983174825395869e-03  2.9089936371221510e-03  2.9182008684965530e-03  2.9259590474751632e-03  2.9322855588177570e-03  2.9371953748312174e-03  2.9407011168487789e-03  2.9428131053335820e-03  2.9435393991961972e-03  2.9428858247743830e-03  2.9408559947921684e-03  2.9374513174910883e-03  2.9326709960064154e-03  2.9265120179426899e-03  2.9189691349830195e-03  2.9100348322429756e-03  2.8996992869493913e-03  2.8879503158839746e-03  2.8747733108779447e-03  2.8601511614726812e-03  2.8440641636682472e-03  2.8264899134607556e-03  2.8074031836143099e-03  2.7867757818154002e-03  2.7645763880068514e-03  2.7407703682822129e-03  2.7153195622235840e-03  2.6881820399663149e-03  2.6593118245466208e-03  2.6286585741998351e-03  2.5961672181842054e-03  2.5617775383514297e-03  2.5254236869953922e-03  2.4870336293853121e-03  2.4465284966942204e-03  2.4038218315861450e-03  2.3588187042744239e-03  2.3114146710603166e-03  2.2614945397139087e-03  2.2089308958658412e-03  2.1535823308207612e-03  2.0952912923818136e-03  2.0338814541410542e-03  1.9691544618056045e-03  1.9008858621247465e-03  1.8288199422752771e-03  1.7526630910626793e-03  1.6720751141932060e-03  1.5866576525745142e-03  1.4959383896917108e-03  1.3993489488737223e-03  1.2961929901657927e-03  1.1855984236610402e-03  1.0664425259749213e-03  9.3722785923626439e-04  7.9586183055741335e-04  6.3922950131216425e-04  4.6227314842182965e-04  2.5574973565125058e-04  0.0000000000000000e+00  0.0000000000000000e+00  4.7542445624352571e-04  8.8110203281382277e-04  1.2368576608737063e-03  1.5550681422264068e-03  1.8436986816083331e-03  2.1081327725959850e-03  2.3521905164176947e-03  2.5787001361527850e-03  2.7898306676017934e-03  2.9872943659731820e-03  3.1724753184357839e-03  3.3465144700773825e-03  3.5103678346352992e-03  3.6648475790717751e-03  3.8106517977249755e-03  3.9483865921028632e-03  4.0785827774612766e-03  4.2017087492233832e-03  4.3181805479373912e-03  4.4283698427578198e-03  4.5326103428274664e-03  4.6312030036270583e-03  4.7244202972394171e-03  4.8125097465725542e-03  4.8956968743879862e-03  4.9741876823123678e-03  5.0481707487880648e-03  5.1178190153907469e-03  5.1832913162267614e-03  5.2447336939116587e-03  5.3022805370018149e-03  5.3560555670453718e-03  5.4061726981612431e-03  5.4527367878982463e-03  5.4958442948136238e-03  5.5355838555502281e-03  5.5720367920400913e-03  5.6052775577096342e-03  5.6353741301246344e-03  5.6623883563261621e-03  5.6863762561222232e-03  5.7073882877736043e-03  5.7254695798156828e-03  5.7406601321656403e-03  5.7529949891566142e-03  5.7625043867006176e-03  5.7692138753974260e-03  5.7731444210659712e-03  5.7743124838687413e-03  5.7727300769207703e-03  5.7684048050157602e-03  5.7613398838567151e-03  5.7515341399416997e-03  5.7389819910214322e-03  5.7236734068092706e-03  5.7055938493804836e-03  5.6847241924407156e-03  5.6610406183675004e-03  5.6345144916264498e-03  5.6051122068277726e-03  5.5727950093097806e-03  5.5375187857033461e-03  5.4992338214315964e-03  5.4578845215167574e-03  5.4134090903809207e-03  5.3657391655154707e-03  5.3147993989238274e-03  5.2605069790752921e-03  5.2027710846942812e-03  5.1414922599853840e-03  5.0765616987776471e-03  5.0078604224532679e-03  4.9352583332645493e-03  4.8586131205491361e-03  4.7777689921744042e-03  4.6925551969340404e-03  4.6027842951139137e-03  4.5082501233903033e-03  4.4087253857110617e-03  4.3039587825467957e-03  4.1936715650249083e-03  4.0775533652567470e-03  3.9552571056009891e-03  3.8263927215737075e-03  3.6905193362139861e-03  3.5471353831448157e-03  3.3956659675000050e-03  3.2354464389658497e-03  3.0657006626280364e-03  2.8855116943671253e-03  2.6937812874663959e-03  2.4891724824009018e-03  2.2700257020304379e-03  2.0342317713240186e-03  1.7790319942522221e-03  1.5006894308014437e-03  1.1939240514664241e-03  8.5090613916700422e-04  4.5944741366016036e-04  0.0000000000000000e+00  0.0000000000000000e+00  6.5771633705928188e-04  1.2363685788496451e-03  1.7527800768393923e-03  2.2193541456276182e-03  2.6450861580971175e-03  3.0365739047689471e-03  3.3987641347386788e-03  3.7354580730957084e-03  4.0496465625163396e-03  4.3437335572118112e-03  4.6196877772633109e-03  4.8791478756902290e-03  5.1234970338306773e-03  5.3539170377693438e-03  5.5714282836943525e-03  5.7769199282672627e-03  5.9711729976819825e-03  6.1548783715475244e-03  6.3286509720073955e-03  6.4930410987842227e-03  6.6485435866266021e-03  6.7956052793088726e-03  6.9346311864046158e-03  7.0659895978871746e-03  7.1900163656955863e-03  7.3070185131023316e-03  7.4172772968786587e-03  7.5210508203476072e-03  7.6185762749963314e-03  7.7100718726659636e-03  7.7957385182222940e-03  7.8757612631502154e-03  7.9503105730650836e-03  8.0195434362209696e-03  8.0836043353662481e-03  8.1426261014872370e-03  8.1967306648899722e-03  8.2460297165460848e-03  8.2906252905537818e-03  8.3306102768473320e-03  8.3660688718578888e-03  8.3970769736281068e-03  8.4237025268688748e-03  8.4460058225829127e-03  8.4640397561384466e-03  8.4778500470333133e-03  8.4874754230267139e-03  8.4929477708167219e-03  8.4942922549926247e-03  8.4915274065820150e-03  8.4846651821318762e-03  8.4737109939031011e-03  8.4586637114098962e-03  8.4395156341922507e-03  8.4162524353630485e-03  8.3888530751141457e-03  8.3572896829893547e-03  8.3215274073282896e-03  8.2815242298435853e-03  8.2372307428037628e-03  8.1885898857418041e-03  8.1355366379802316e-03  8.0779976625378318e-03  8.0158908961389143e-03  7.9491250790545854e-03  7.8775992173326405e-03  7.8012019685744279e-03  7.7198109407386421e-03  7.6332918914235725e-03  7.5414978126116892e-03  7.4442678828379712e-03  7.3414262650165762e-03  7.2327807235327488e-03  7.1181210284189190e-03  6.9972171071396895e-03  6.8698168952449883e-03  6.7356438252814607e-03  6.5943938780117983e-03  6.4457320999758835e-03  6.2892884650452745e-03  6.1246529224696124e-03  5.9513694265265725e-03  5.7689286782051418e-03  5.5767592198701045e-03  5.3742163982641701e-03  5.1605685321759187e-03  4.9349793616224810e-03  4.6964854725902788e-03  4.4439668159711601e-03  4.1761075574946876e-03  3.8913431174637781e-03  3.5877870660452121e-03  3.2631279975927534e-03  2.9144807468676781e-03  2.5381670397422200e-03  2.1293864770521795e-03  1.6817201960101615e-03  1.1863979587241572e-03  6.3130677906656266e-04  0.0000000000000000e+00  0.0000000000000000e+00  8.1889222118762279e-04  1.5535986740611320e-03  2.2181374855081404e-03  2.8239311079625634e-03  3.3799982238026313e-03  3.8934070210799076e-03  4.3697274483319561e-03  4.8134002760712126e-03  5.2280160789517551e-03  5.6165200830378603e-03  5.9813615573109701e-03  6.3246032381518253e-03  6.6480022787735009e-03  6.9530708855799371e-03  7.2411223505536183e-03  7.5133064676879899e-03  7.7706371356306703e-03  8.0140141344682263e-03  8.2442405031435701e-03  8.4620365536342054e-03  8.6680512837592032e-03  8.8628717555812135e-03  9.0470308662308693e-03  9.2210138360349948e-03  9.3852636638219415e-03  9.5401857434805355e-03  9.6861517939081671e-03  9.8235032226407382e-03  9.9525540190526056e-03  1.0073593254141734e-02  1.0186887249195704e-02  1.0292681464060835e-02  1.0391202146566796e-02  1.0482657777340226e-02  1.0567240338357929e-02  1.0645126428829926e-02  1.0716478248124869e-02  1.0781444462271503e-02  1.0840160967947626e-02  1.0892751565690629e-02  1.0939328552244550e-02  1.0979993240428519e-02  1.1014836413614993e-02  1.1043938720800095e-02  1.1067371017296232e-02  1.1085194655250230e-02  1.1097461727464730e-02  1.1104215267355964e-02  1.1105489407301312e-02  1.1101309497100031e-02  1.1091692183778106e-02  1.1076645453501724e-02  1.1056168635913301e-02  1.1030252370759159e-02  1.0998878536229358e-02  1.0962020137968223e-02  1.0919641157227869e-02  1.0871696356116192e-02  1.0818131037322324e-02  1.0758880755072531e-02  1.0693870973361682e-02  1.0623016666699800e-02  1.0546221857686945e-02  1.0463379084654159e-02  1.0374368791348659e-02  1.0279058629155102e-02  1.0177302660577746e-02  1.0068940450593785e-02  9.9537960299407608e-03  9.8316767113125880e-03  9.7023717356704842e-03  9.5656507212477267e-03  9.4212618821070248e-03  9.2689299759907539e-03  9.1083539322824123e-03  8.9392040996339808e-03  8.7611190384835873e-03  8.5737017653085834e-03  8.3765153316857615e-03  8.1690775902031870e-03  7.9508549583893959e-03  7.7212549374298467e-03  7.4796170692977360e-03  7.2252019164954955e-03  6.9571775118951922e-03  6.6746025360055446e-03  6.3764052113679977e-03  6.0613565228281692e-03  5.7280358244882765e-03  5.3747860994922446e-03  4.9996549815638945e-03  4.6003159680211691e-03  4.1739618618274604e-03  3.7171592353776738e-03  3.2256488216875529e-03  2.6940736595147466e-03  2.1156195708452062e-03  1.4815750168254717e-03  7.8089122907233188e-04  0.0000000000000000e+00  0.0000000000000000e+00  9.6401108658839072e-04  1.8406607407571343e-03  2.6417840593408117e-03  3.3776350326348596e-03  4.0568058475733363e-03  4.6863855765138067e-03  5.2722004905501442e-03  5.8190537016304658e-03  6.3309321525446697e-03  6.8111742165046767e-03  7.2626013909188776e-03  7.6876205246268342e-03  8.0883029857184794e-03  8.4664461676884142e-03  8.8236215748548480e-03  9.1612127133040375e-03  9.4804452074197087e-03  9.7824109496067665e-03  1.0068087635160398e-02  1.0338354698063644e-02  1.0594006415836212e-02  1.0835762768614952e-02  1.1064278501823165e-02  1.1280150740288875e-02  1.1483925425273754e-02  1.1676102787925642e-02  1.1857142028370234e-02  1.2027465335531182e-02  1.2187461356276455e-02  1.2337488201770398e-02  1.2477876062590048e-02  1.2608929491217896e-02  1.2730929400183324e-02  1.2844134815813875e-02  1.2948784420833385e-02  1.3045097913571321e-02  1.3133277207066215e-02  1.3213507487654092e-02  1.3285958149573993e-02  1.3350783619572086e-02  1.3408124083347373e-02  1.3458106123876152e-02  1.3500843280118326e-02  1.3536436533295008e-02  1.3564974726793369e-02  1.3586534924767713e-02  1.3601182713637583e-02  1.3608972449911008e-02  1.3609947457064522e-02  1.3604140173574300e-02  1.3591572253599462e-02  1.3572254621256802e-02  1.3546187478882810e-02  1.3513360269143024e-02  1.3473751590308366e-02  1.3427329063462357e-02  1.3374049149819255e-02  1.3313856915708360e-02  1.3246685742099982e-02  1.3172456974796203e-02  1.3091079510567063e-02  1.3002449313556132e-02  1.2906448855182743e-02  1.2802946469498800e-02  1.2691795614475967e-02  1.2572834027956076e-02  1.2445882764933426e-02  1.2310745100376068e-02  1.2167205278841280e-02  1.2015027088576428e-02  1.1853952233470020e-02  1.1683698470932636e-02  1.1503957477292654e-02  1.1314392394260606e-02  1.1114635000022726e-02  1.0904282436007022e-02  1.0682893404581353e-02  1.0449983732900214e-02  1.0205021172482398e-02  9.9474192710712062e-03  9.6765301104431226e-03  9.3916356477177724e-03  9.0919373237298221e-03  8.7765435037092353e-03  8.4444541839380494e-03  8.0945422208181326e-03  7.7255300988545335e-03  7.3359609284161008e-03  6.9241619228396700e-03  6.4881980115379786e-03  6.0258124658498840e-03  5.5343504340473453e-03  5.0106601672715119e-03  4.4509657535529270e-03  3.8507051738329145e-03  3.2043304127300594e-03  2.5050763681494148e-03  1.7447299451997468e-03  9.1347973308887837e-04  0.0000000000000000e+00  0.0000000000000000e+00  1.0961848589271300e-03  2.1028569515392798e-03  3.0301985254506739e-03  3.8873795887825421e-03  4.6824104243116159e-03  5.4221634051855047e-03  6.1124837289671351e-03  6.7583317160234586e-03  7.3639246330888626e-03  7.9328636307845427e-03  8.4682413535567842e-03  8.9727306018627280e-03  9.4486563495796653e-03  9.8980539004731357e-03  1.0322715816464227e-02  1.0724229875263964e-02  1.1104009902652175e-02  1.1463320950649641e-02  1.1803299980033471e-02  1.2124972954501117e-02  1.2429269056410603e-02  1.2717032580567590e-02  1.2989032943762300e-02  1.3245973155903279e-02  1.3488497027428199e-02  1.3717195332351270e-02  1.3932611103118943e-02  1.4135244199562120e-02  1.4325555267508871e-02  1.4503969181427247e-02  1.4670878048564911e-02  1.4826643838496150e-02  1.4971600691053964e-02  1.5106056946758770e-02  1.5230296936625878e-02  1.5344582562307169e-02  1.5449154692637135e-02  1.5544234398605363e-02  1.5630024045404506e-02  1.5706708257376811e-02  1.5774454769301064e-02  1.5833415175443073e-02  1.5883725586070440e-02  1.5925507199652231e-02  1.5958866797682891e-02  1.5983897167949981e-02  1.6000677461077903e-02  1.6009273484298751e-02  1.6009737935605065e-02  1.6002110580709796e-02  1.5986418374558161e-02  1.5962675528491344e-02  1.5930883523538102e-02  1.5891031069694968e-02  1.5843094010435842e-02  1.5787035171055033e-02  1.5722804148779659e-02  1.5650337041874660e-02  1.5569556114189226e-02  1.5480369390739641e-02  1.5382670178969819e-02  1.5276336509251575e-02  1.5161230486953871e-02  1.5037197546988438e-02  1.4904065600085864e-02  1.4761644058119703e-02  1.4609722723513052e-02  1.4448070525052471e-02  1.4276434079200935e-02  1.4094536052120167e-02  1.3902073292928630e-02  1.3698714703037526e-02  1.3484098799471994e-02  1.3257830921577703e-02  1.3019480020020043e-02  1.2768574953968929e-02  1.2504600206131040e-02  1.2226990904934537e-02  1.1935127017497325e-02  1.1628326544452540e-02  1.1305837506200537e-02  1.0966828456987364e-02  1.0610377194806996e-02  1.0235457246837864e-02  9.8409215959843113e-03  9.4254829666501217e-03  8.9876897983035570e-03  8.5258967943447461e-03  8.0382286338827342e-03  7.5225350760794426e-03  6.9763352935533407e-03  6.3967489168110306e-03  5.7804111380193555e-03  5.1233697060606943e-03  4.4209635316625751e-03  3.6676873208338649e-03  2.8570563397098230e-03  1.9815024951560165e-03  1.0323573754995579e-03  0.0000000000000000e+00  0.0000000000000000e+00  1.2175025197299046e-03  2.3439386924583960e-03  3.3882267992611783e-03  4.3586036342583455e-03  5.2624787711743892e-03  6.1063997775237609e-03  6.8960907188973112e-03  7.6365291965031527e-03  8.3320374728883661e-03  8.9863732437573812e-03  9.6028128307279505e-03  1.0184224012758680e-02  1.0733128138414457e-02  1.1251752322403911e-02  1.1742072976506935e-02  1.2205852002120458e-02  1.2644666877616591e-02  1.3059935714896291e-02  1.3452938188971090e-02  1.3824833086032159e-02  1.4176673078112401e-02  1.4509417217631647e-02  1.4823941551126077e-02  1.5121048175429499e-02  1.5401472998452730e-02  1.5665892417706922e-02  1.5914929090449649e-02  1.6149156937825707e-02  1.6369105500037392e-02  1.6575263739140277e-02  1.6768083369514922e-02  1.6947981782618481e-02  1.7115344621647557e-02  1.7270528052750023e-02  1.7413860772021221e-02  1.7545645781398070e-02  1.7666161961479705e-02  1.7775665465059095e-02  1.7874390951590862e-02  1.7962552679820436e-02  1.8040345473257776e-02  1.8107945571012744e-02  1.8165511374652391e-02  1.8213184100137787e-02  1.8251088342504430e-02  1.8279332559728828e-02  1.8298009481141884e-02  1.8307196444782115e-02  1.8306955667204500e-02  1.8297334448455421e-02  1.8278365314171437e-02  1.8250066096045663e-02  1.8212439951214531e-02  1.8165475320435994e-02  1.8109145824244090e-02  1.8043410095560836e-02  1.7968211546509676e-02  1.7883478066390238e-02  1.7789121646924522e-02  1.7685037929950929e-02  1.7571105671703332e-02  1.7447186116640975e-02  1.7313122272462286e-02  1.7168738076405666e-02  1.7013837441169168e-02  1.6848203166717094e-02  1.6671595701820429e-02  1.6483751736322022e-02  1.6284382601729319e-02  1.6073172453697538e-02  1.5849776205125655e-02  1.5613817172759869e-02  1.5364884393150239e-02  1.5102529555241731e-02  1.4826263486429124e-02  1.4535552116094898e-02  1.4229811824884081e-02  1.3908404068492917e-02  1.3570629140600589e-02  1.3215718909545369e-02  1.2842828325923511e-02  1.2451025451596386e-02  1.2039279702362514e-02  1.1606447924145424e-02  1.1151257833100321e-02  1.0672288240879815e-02  1.0167945355904318e-02  9.6364343015036269e-03  9.0757248310088211e-03  8.4835100716705546e-03  7.8571570452142386e-03  7.1936477959338649e-03  6.4895103991588340e-03  5.7407402562421285e-03  4.9427144344120133e-03  4.0901061047432822e-03  3.1768130875696032e-03  2.1959241245522419e-03  1.1397563437599762e-03  0.0000000000000000e+00  0.0000000000000000e+00  1.3294587664348795e-03  2.5666761227976986e-03  3.7195847783813843e-03  4.7956368946408482e-03  5.8016788453986185e-03  6.7438973606958469e-03  7.6278205154158858e-03  8.4583539577299978e-03  9.2398358090301398e-03  9.9760985325153626e-03  1.0670530527476914e-02  1.1326133519927506e-02  1.1945573993174747e-02  1.2531228196206941e-02  1.3085220967654455e-02  1.3609458944138262e-02  1.4105658839608428e-02  1.4575371485528468e-02  1.5020002269425823e-02  1.5440828534779202e-02  1.5839014426280839e